LAMMPS data file. CGCMM style. atom_style charge generated by VMD/TopoTools v1.7 on Sat Sep 09 16:16:21 +0330 2023
 6954 atoms
 0 bonds
 0 angles
 0 dihedrals
 0 impropers
 4 atom types
 0 bond types
 0 angle types
 0 dihedral types
 0 improper types
 -46.115002 46.434002  xlo xhi
 -70.769996 71.168999  ylo yhi
 -46.293999 46.552002  zlo zhi

# Pair Coeffs
#
# 1  C
# 2  H
# 3  O
# 4  Pt

 Masses

 1 12.011000 # C
 2 1.007940 # H
 3 15.999400 # O
 4 195.084000 # Pt

 Atoms # charge

1 4 0.000000 10.806000 31.214001 -2.759000 # Pt
2 4 0.000000 9.304000 31.214001 -6.157000 # Pt
3 4 0.000000 6.775000 31.214001 -8.879000 # Pt
4 4 0.000000 3.496000 31.214001 -10.625000 # Pt
5 4 0.000000 -0.174000 31.214001 -11.205000 # Pt
6 4 0.000000 -3.831000 31.214001 -10.554000 # Pt
7 4 0.000000 -7.076000 31.214001 -8.743000 # Pt
8 4 0.000000 -9.551000 31.214001 -5.972000 # Pt
9 4 0.000000 -10.986000 31.214001 -2.545000 # Pt
10 4 0.000000 -11.222000 31.214001 1.163000 # Pt
11 4 0.000000 -10.234000 31.214001 4.745000 # Pt
12 4 0.000000 -8.130000 31.214001 7.807000 # Pt
13 4 0.000000 -5.141000 31.214001 10.014000 # Pt
14 4 0.000000 -1.595000 31.214001 11.124000 # Pt
15 4 0.000000 2.118000 31.214001 11.015000 # Pt
16 4 0.000000 5.592000 31.214001 9.699000 # Pt
17 4 0.000000 8.446000 31.214001 7.320000 # Pt
18 4 0.000000 10.366000 31.214001 4.139000 # Pt
19 4 0.000000 11.142000 31.214001 0.506000 # Pt
20 4 0.000000 10.806000 28.438999 -2.759000 # Pt
21 4 0.000000 8.928000 29.827000 -3.960000 # Pt
22 4 0.000000 9.304000 28.438999 -6.157000 # Pt
23 4 0.000000 7.137000 29.827000 -6.679000 # Pt
24 4 0.000000 6.775000 28.438999 -8.879000 # Pt
25 4 0.000000 4.556000 29.827000 -8.665000 # Pt
26 4 0.000000 3.496000 28.438999 -10.625000 # Pt
27 4 0.000000 1.469000 29.827000 -9.698000 # Pt
28 4 0.000000 -0.174000 28.438999 -11.205000 # Pt
29 4 0.000000 -1.786000 29.827000 -9.666000 # Pt
30 4 0.000000 -3.831000 28.438999 -10.554000 # Pt
31 4 0.000000 -4.853000 29.827000 -8.572000 # Pt
32 4 0.000000 -7.076000 28.438999 -8.743000 # Pt
33 4 0.000000 -7.395000 29.827000 -6.537000 # Pt
34 4 0.000000 -9.551000 28.438999 -5.972000 # Pt
35 4 0.000000 -9.132000 29.827000 -3.783000 # Pt
36 4 0.000000 -10.986000 28.438999 -2.545000 # Pt
37 4 0.000000 -9.874000 29.827000 -0.613000 # Pt
38 4 0.000000 -11.222000 28.438999 1.163000 # Pt
39 4 0.000000 -9.540000 29.827000 2.626000 # Pt
40 4 0.000000 -10.234000 28.438999 4.745000 # Pt
41 4 0.000000 -8.166000 29.827000 5.578000 # Pt
42 4 0.000000 -8.130000 28.438999 7.807000 # Pt
43 4 0.000000 -5.904000 29.827000 7.920000 # Pt
44 4 0.000000 -5.141000 28.438999 10.014000 # Pt
45 4 0.000000 -3.000000 29.827000 9.393000 # Pt
46 4 0.000000 -1.595000 28.438999 11.124000 # Pt
47 4 0.000000 0.225000 29.827000 9.838000 # Pt
48 4 0.000000 2.118000 28.438999 11.015000 # Pt
49 4 0.000000 3.418000 29.827000 9.205000 # Pt
50 4 0.000000 5.592000 28.438999 9.699000 # Pt
51 4 0.000000 6.230000 29.827000 7.563000 # Pt
52 4 0.000000 8.446000 28.438999 7.320000 # Pt
53 4 0.000000 8.351000 29.827000 5.093000 # Pt
54 4 0.000000 10.366000 28.438999 4.139000 # Pt
55 4 0.000000 9.549000 29.827000 2.065000 # Pt
56 4 0.000000 11.142000 28.438999 0.506000 # Pt
57 4 0.000000 9.693000 29.827000 -1.188000 # Pt
58 4 0.000000 10.806000 25.665001 -2.759000 # Pt
59 4 0.000000 8.928000 27.052000 -3.960000 # Pt
60 4 0.000000 9.304000 25.665001 -6.157000 # Pt
61 4 0.000000 7.137000 27.052000 -6.679000 # Pt
62 4 0.000000 6.775000 25.665001 -8.879000 # Pt
63 4 0.000000 4.556000 27.052000 -8.665000 # Pt
64 4 0.000000 3.496000 25.665001 -10.625000 # Pt
65 4 0.000000 1.469000 27.052000 -9.698000 # Pt
66 4 0.000000 -0.174000 25.665001 -11.205000 # Pt
67 4 0.000000 -1.786000 27.052000 -9.666000 # Pt
68 4 0.000000 -3.831000 25.665001 -10.554000 # Pt
69 4 0.000000 -4.853000 27.052000 -8.572000 # Pt
70 4 0.000000 -7.076000 25.665001 -8.743000 # Pt
71 4 0.000000 -7.395000 27.052000 -6.537000 # Pt
72 4 0.000000 -9.551000 25.665001 -5.972000 # Pt
73 4 0.000000 -9.132000 27.052000 -3.783000 # Pt
74 4 0.000000 -10.986000 25.665001 -2.545000 # Pt
75 4 0.000000 -9.874000 27.052000 -0.613000 # Pt
76 4 0.000000 -11.222000 25.665001 1.163000 # Pt
77 4 0.000000 -9.540000 27.052000 2.626000 # Pt
78 4 0.000000 -10.234000 25.665001 4.745000 # Pt
79 4 0.000000 -8.166000 27.052000 5.578000 # Pt
80 4 0.000000 -8.130000 25.665001 7.807000 # Pt
81 4 0.000000 -5.904000 27.052000 7.920000 # Pt
82 4 0.000000 -5.141000 25.665001 10.014000 # Pt
83 4 0.000000 -3.000000 27.052000 9.393000 # Pt
84 4 0.000000 -1.595000 25.665001 11.124000 # Pt
85 4 0.000000 0.225000 27.052000 9.838000 # Pt
86 4 0.000000 2.118000 25.665001 11.015000 # Pt
87 4 0.000000 3.418000 27.052000 9.205000 # Pt
88 4 0.000000 5.592000 25.665001 9.699000 # Pt
89 4 0.000000 6.230000 27.052000 7.563000 # Pt
90 4 0.000000 8.446000 25.665001 7.320000 # Pt
91 4 0.000000 8.351000 27.052000 5.093000 # Pt
92 4 0.000000 10.366000 25.665001 4.139000 # Pt
93 4 0.000000 9.549000 27.052000 2.065000 # Pt
94 4 0.000000 11.142000 25.665001 0.506000 # Pt
95 4 0.000000 9.693000 27.052000 -1.188000 # Pt
96 4 0.000000 10.806000 22.889999 -2.759000 # Pt
97 4 0.000000 8.928000 24.277000 -3.960000 # Pt
98 4 0.000000 9.304000 22.889999 -6.157000 # Pt
99 4 0.000000 7.137000 24.277000 -6.679000 # Pt
100 4 0.000000 6.775000 22.889999 -8.879000 # Pt
101 4 0.000000 4.556000 24.277000 -8.665000 # Pt
102 4 0.000000 3.496000 22.889999 -10.625000 # Pt
103 4 0.000000 1.469000 24.277000 -9.698000 # Pt
104 4 0.000000 -0.174000 22.889999 -11.205000 # Pt
105 4 0.000000 -1.786000 24.277000 -9.666000 # Pt
106 4 0.000000 -3.831000 22.889999 -10.554000 # Pt
107 4 0.000000 -4.853000 24.277000 -8.572000 # Pt
108 4 0.000000 -7.076000 22.889999 -8.743000 # Pt
109 4 0.000000 -7.395000 24.277000 -6.537000 # Pt
110 4 0.000000 -9.551000 22.889999 -5.972000 # Pt
111 4 0.000000 -9.132000 24.277000 -3.783000 # Pt
112 4 0.000000 -10.986000 22.889999 -2.545000 # Pt
113 4 0.000000 -9.874000 24.277000 -0.613000 # Pt
114 4 0.000000 -11.222000 22.889999 1.163000 # Pt
115 4 0.000000 -9.540000 24.277000 2.626000 # Pt
116 4 0.000000 -10.234000 22.889999 4.745000 # Pt
117 4 0.000000 -8.166000 24.277000 5.578000 # Pt
118 4 0.000000 -8.130000 22.889999 7.807000 # Pt
119 4 0.000000 -5.904000 24.277000 7.920000 # Pt
120 4 0.000000 -5.141000 22.889999 10.014000 # Pt
121 4 0.000000 -3.000000 24.277000 9.393000 # Pt
122 4 0.000000 -1.595000 22.889999 11.124000 # Pt
123 4 0.000000 0.225000 24.277000 9.838000 # Pt
124 4 0.000000 2.118000 22.889999 11.015000 # Pt
125 4 0.000000 3.418000 24.277000 9.205000 # Pt
126 4 0.000000 5.592000 22.889999 9.699000 # Pt
127 4 0.000000 6.230000 24.277000 7.563000 # Pt
128 4 0.000000 8.446000 22.889999 7.320000 # Pt
129 4 0.000000 8.351000 24.277000 5.093000 # Pt
130 4 0.000000 10.366000 22.889999 4.139000 # Pt
131 4 0.000000 9.549000 24.277000 2.065000 # Pt
132 4 0.000000 11.142000 22.889999 0.506000 # Pt
133 4 0.000000 9.693000 24.277000 -1.188000 # Pt
134 4 0.000000 10.806000 20.115999 -2.759000 # Pt
135 4 0.000000 8.928000 21.503000 -3.960000 # Pt
136 4 0.000000 9.304000 20.115999 -6.157000 # Pt
137 4 0.000000 7.137000 21.503000 -6.679000 # Pt
138 4 0.000000 6.775000 20.115999 -8.879000 # Pt
139 4 0.000000 4.556000 21.503000 -8.665000 # Pt
140 4 0.000000 3.496000 20.115999 -10.625000 # Pt
141 4 0.000000 1.469000 21.503000 -9.698000 # Pt
142 4 0.000000 -0.174000 20.115999 -11.205000 # Pt
143 4 0.000000 -1.786000 21.503000 -9.666000 # Pt
144 4 0.000000 -3.831000 20.115999 -10.554000 # Pt
145 4 0.000000 -4.853000 21.503000 -8.572000 # Pt
146 4 0.000000 -7.076000 20.115999 -8.743000 # Pt
147 4 0.000000 -7.395000 21.503000 -6.537000 # Pt
148 4 0.000000 -9.551000 20.115999 -5.972000 # Pt
149 4 0.000000 -9.132000 21.503000 -3.783000 # Pt
150 4 0.000000 -10.986000 20.115999 -2.545000 # Pt
151 4 0.000000 -9.874000 21.503000 -0.613000 # Pt
152 4 0.000000 -11.222000 20.115999 1.163000 # Pt
153 4 0.000000 -9.540000 21.503000 2.626000 # Pt
154 4 0.000000 -10.234000 20.115999 4.745000 # Pt
155 4 0.000000 -8.166000 21.503000 5.578000 # Pt
156 4 0.000000 -8.130000 20.115999 7.807000 # Pt
157 4 0.000000 -5.904000 21.503000 7.920000 # Pt
158 4 0.000000 -5.141000 20.115999 10.014000 # Pt
159 4 0.000000 -3.000000 21.503000 9.393000 # Pt
160 4 0.000000 -1.595000 20.115999 11.124000 # Pt
161 4 0.000000 0.225000 21.503000 9.838000 # Pt
162 4 0.000000 2.118000 20.115999 11.015000 # Pt
163 4 0.000000 3.418000 21.503000 9.205000 # Pt
164 4 0.000000 5.592000 20.115999 9.699000 # Pt
165 4 0.000000 6.230000 21.503000 7.563000 # Pt
166 4 0.000000 8.446000 20.115999 7.320000 # Pt
167 4 0.000000 8.351000 21.503000 5.093000 # Pt
168 4 0.000000 10.366000 20.115999 4.139000 # Pt
169 4 0.000000 9.549000 21.503000 2.065000 # Pt
170 4 0.000000 11.142000 20.115999 0.506000 # Pt
171 4 0.000000 9.693000 21.503000 -1.188000 # Pt
172 4 0.000000 10.806000 17.341000 -2.759000 # Pt
173 4 0.000000 8.928000 18.728001 -3.960000 # Pt
174 4 0.000000 9.304000 17.341000 -6.157000 # Pt
175 4 0.000000 7.137000 18.728001 -6.679000 # Pt
176 4 0.000000 6.775000 17.341000 -8.879000 # Pt
177 4 0.000000 4.556000 18.728001 -8.665000 # Pt
178 4 0.000000 3.496000 17.341000 -10.625000 # Pt
179 4 0.000000 1.469000 18.728001 -9.698000 # Pt
180 4 0.000000 -0.174000 17.341000 -11.205000 # Pt
181 4 0.000000 -1.786000 18.728001 -9.666000 # Pt
182 4 0.000000 -3.831000 17.341000 -10.554000 # Pt
183 4 0.000000 -4.853000 18.728001 -8.572000 # Pt
184 4 0.000000 -7.076000 17.341000 -8.743000 # Pt
185 4 0.000000 -7.395000 18.728001 -6.537000 # Pt
186 4 0.000000 -9.551000 17.341000 -5.972000 # Pt
187 4 0.000000 -9.132000 18.728001 -3.783000 # Pt
188 4 0.000000 -10.986000 17.341000 -2.545000 # Pt
189 4 0.000000 -9.874000 18.728001 -0.613000 # Pt
190 4 0.000000 -11.222000 17.341000 1.163000 # Pt
191 4 0.000000 -9.540000 18.728001 2.626000 # Pt
192 4 0.000000 -10.234000 17.341000 4.745000 # Pt
193 4 0.000000 -8.166000 18.728001 5.578000 # Pt
194 4 0.000000 -8.130000 17.341000 7.807000 # Pt
195 4 0.000000 -5.904000 18.728001 7.920000 # Pt
196 4 0.000000 -5.141000 17.341000 10.014000 # Pt
197 4 0.000000 -3.000000 18.728001 9.393000 # Pt
198 4 0.000000 -1.595000 17.341000 11.124000 # Pt
199 4 0.000000 0.225000 18.728001 9.838000 # Pt
200 4 0.000000 2.118000 17.341000 11.015000 # Pt
201 4 0.000000 3.418000 18.728001 9.205000 # Pt
202 4 0.000000 5.592000 17.341000 9.699000 # Pt
203 4 0.000000 6.230000 18.728001 7.563000 # Pt
204 4 0.000000 8.446000 17.341000 7.320000 # Pt
205 4 0.000000 8.351000 18.728001 5.093000 # Pt
206 4 0.000000 10.366000 17.341000 4.139000 # Pt
207 4 0.000000 9.549000 18.728001 2.065000 # Pt
208 4 0.000000 11.142000 17.341000 0.506000 # Pt
209 4 0.000000 9.693000 18.728001 -1.188000 # Pt
210 4 0.000000 10.806000 14.566000 -2.759000 # Pt
211 4 0.000000 8.928000 15.954000 -3.960000 # Pt
212 4 0.000000 9.304000 14.566000 -6.157000 # Pt
213 4 0.000000 7.137000 15.954000 -6.679000 # Pt
214 4 0.000000 6.775000 14.566000 -8.879000 # Pt
215 4 0.000000 4.556000 15.954000 -8.665000 # Pt
216 4 0.000000 3.496000 14.566000 -10.625000 # Pt
217 4 0.000000 1.469000 15.954000 -9.698000 # Pt
218 4 0.000000 -0.174000 14.566000 -11.205000 # Pt
219 4 0.000000 -1.786000 15.954000 -9.666000 # Pt
220 4 0.000000 -3.831000 14.566000 -10.554000 # Pt
221 4 0.000000 -4.853000 15.954000 -8.572000 # Pt
222 4 0.000000 -7.076000 14.566000 -8.743000 # Pt
223 4 0.000000 -7.395000 15.954000 -6.537000 # Pt
224 4 0.000000 -9.551000 14.566000 -5.972000 # Pt
225 4 0.000000 -9.132000 15.954000 -3.783000 # Pt
226 4 0.000000 -10.986000 14.566000 -2.545000 # Pt
227 4 0.000000 -9.874000 15.954000 -0.613000 # Pt
228 4 0.000000 -11.222000 14.566000 1.163000 # Pt
229 4 0.000000 -9.540000 15.954000 2.626000 # Pt
230 4 0.000000 -10.234000 14.566000 4.745000 # Pt
231 4 0.000000 -8.166000 15.954000 5.578000 # Pt
232 4 0.000000 -8.130000 14.566000 7.807000 # Pt
233 4 0.000000 -5.904000 15.954000 7.920000 # Pt
234 4 0.000000 -5.141000 14.566000 10.014000 # Pt
235 4 0.000000 -3.000000 15.954000 9.393000 # Pt
236 4 0.000000 -1.595000 14.566000 11.124000 # Pt
237 4 0.000000 0.225000 15.954000 9.838000 # Pt
238 4 0.000000 2.118000 14.566000 11.015000 # Pt
239 4 0.000000 3.418000 15.954000 9.205000 # Pt
240 4 0.000000 5.592000 14.566000 9.699000 # Pt
241 4 0.000000 6.230000 15.954000 7.563000 # Pt
242 4 0.000000 8.446000 14.566000 7.320000 # Pt
243 4 0.000000 8.351000 15.954000 5.093000 # Pt
244 4 0.000000 10.366000 14.566000 4.139000 # Pt
245 4 0.000000 9.549000 15.954000 2.065000 # Pt
246 4 0.000000 11.142000 14.566000 0.506000 # Pt
247 4 0.000000 9.693000 15.954000 -1.188000 # Pt
248 4 0.000000 10.806000 11.792000 -2.759000 # Pt
249 4 0.000000 8.928000 13.179000 -3.960000 # Pt
250 4 0.000000 9.304000 11.792000 -6.157000 # Pt
251 4 0.000000 7.137000 13.179000 -6.679000 # Pt
252 4 0.000000 6.775000 11.792000 -8.879000 # Pt
253 4 0.000000 4.556000 13.179000 -8.665000 # Pt
254 4 0.000000 3.496000 11.792000 -10.625000 # Pt
255 4 0.000000 1.469000 13.179000 -9.698000 # Pt
256 4 0.000000 -0.174000 11.792000 -11.205000 # Pt
257 4 0.000000 -1.786000 13.179000 -9.666000 # Pt
258 4 0.000000 -3.831000 11.792000 -10.554000 # Pt
259 4 0.000000 -4.853000 13.179000 -8.572000 # Pt
260 4 0.000000 -7.076000 11.792000 -8.743000 # Pt
261 4 0.000000 -7.395000 13.179000 -6.537000 # Pt
262 4 0.000000 -9.551000 11.792000 -5.972000 # Pt
263 4 0.000000 -9.132000 13.179000 -3.783000 # Pt
264 4 0.000000 -10.986000 11.792000 -2.545000 # Pt
265 4 0.000000 -9.874000 13.179000 -0.613000 # Pt
266 4 0.000000 -11.222000 11.792000 1.163000 # Pt
267 4 0.000000 -9.540000 13.179000 2.626000 # Pt
268 4 0.000000 -10.234000 11.792000 4.745000 # Pt
269 4 0.000000 -8.166000 13.179000 5.578000 # Pt
270 4 0.000000 -8.130000 11.792000 7.807000 # Pt
271 4 0.000000 -5.904000 13.179000 7.920000 # Pt
272 4 0.000000 -5.141000 11.792000 10.014000 # Pt
273 4 0.000000 -3.000000 13.179000 9.393000 # Pt
274 4 0.000000 -1.595000 11.792000 11.124000 # Pt
275 4 0.000000 0.225000 13.179000 9.838000 # Pt
276 4 0.000000 2.118000 11.792000 11.015000 # Pt
277 4 0.000000 3.418000 13.179000 9.205000 # Pt
278 4 0.000000 5.592000 11.792000 9.699000 # Pt
279 4 0.000000 6.230000 13.179000 7.563000 # Pt
280 4 0.000000 8.446000 11.792000 7.320000 # Pt
281 4 0.000000 8.351000 13.179000 5.093000 # Pt
282 4 0.000000 10.366000 11.792000 4.139000 # Pt
283 4 0.000000 9.549000 13.179000 2.065000 # Pt
284 4 0.000000 11.142000 11.792000 0.506000 # Pt
285 4 0.000000 9.693000 13.179000 -1.188000 # Pt
286 4 0.000000 10.806000 9.017000 -2.759000 # Pt
287 4 0.000000 8.928000 10.404000 -3.960000 # Pt
288 4 0.000000 9.304000 9.017000 -6.157000 # Pt
289 4 0.000000 7.137000 10.404000 -6.679000 # Pt
290 4 0.000000 6.775000 9.017000 -8.879000 # Pt
291 4 0.000000 4.556000 10.404000 -8.665000 # Pt
292 4 0.000000 3.496000 9.017000 -10.625000 # Pt
293 4 0.000000 1.469000 10.404000 -9.698000 # Pt
294 4 0.000000 -0.174000 9.017000 -11.205000 # Pt
295 4 0.000000 -1.786000 10.404000 -9.666000 # Pt
296 4 0.000000 -3.831000 9.017000 -10.554000 # Pt
297 4 0.000000 -4.853000 10.404000 -8.572000 # Pt
298 4 0.000000 -7.076000 9.017000 -8.743000 # Pt
299 4 0.000000 -7.395000 10.404000 -6.537000 # Pt
300 4 0.000000 -9.551000 9.017000 -5.972000 # Pt
301 4 0.000000 -9.132000 10.404000 -3.783000 # Pt
302 4 0.000000 -10.986000 9.017000 -2.545000 # Pt
303 4 0.000000 -9.874000 10.404000 -0.613000 # Pt
304 4 0.000000 -11.222000 9.017000 1.163000 # Pt
305 4 0.000000 -9.540000 10.404000 2.626000 # Pt
306 4 0.000000 -10.234000 9.017000 4.745000 # Pt
307 4 0.000000 -8.166000 10.404000 5.578000 # Pt
308 4 0.000000 -8.130000 9.017000 7.807000 # Pt
309 4 0.000000 -5.904000 10.404000 7.920000 # Pt
310 4 0.000000 -5.141000 9.017000 10.014000 # Pt
311 4 0.000000 -3.000000 10.404000 9.393000 # Pt
312 4 0.000000 -1.595000 9.017000 11.124000 # Pt
313 4 0.000000 0.225000 10.404000 9.838000 # Pt
314 4 0.000000 2.118000 9.017000 11.015000 # Pt
315 4 0.000000 3.418000 10.404000 9.205000 # Pt
316 4 0.000000 5.592000 9.017000 9.699000 # Pt
317 4 0.000000 6.230000 10.404000 7.563000 # Pt
318 4 0.000000 8.446000 9.017000 7.320000 # Pt
319 4 0.000000 8.351000 10.404000 5.093000 # Pt
320 4 0.000000 10.366000 9.017000 4.139000 # Pt
321 4 0.000000 9.549000 10.404000 2.065000 # Pt
322 4 0.000000 11.142000 9.017000 0.506000 # Pt
323 4 0.000000 9.693000 10.404000 -1.188000 # Pt
324 4 0.000000 10.806000 6.242000 -2.759000 # Pt
325 4 0.000000 8.928000 7.630000 -3.960000 # Pt
326 4 0.000000 9.304000 6.242000 -6.157000 # Pt
327 4 0.000000 7.137000 7.630000 -6.679000 # Pt
328 4 0.000000 6.775000 6.242000 -8.879000 # Pt
329 4 0.000000 4.556000 7.630000 -8.665000 # Pt
330 4 0.000000 3.496000 6.242000 -10.625000 # Pt
331 4 0.000000 1.469000 7.630000 -9.698000 # Pt
332 4 0.000000 -0.174000 6.242000 -11.205000 # Pt
333 4 0.000000 -1.786000 7.630000 -9.666000 # Pt
334 4 0.000000 -3.831000 6.242000 -10.554000 # Pt
335 4 0.000000 -4.853000 7.630000 -8.572000 # Pt
336 4 0.000000 -7.076000 6.242000 -8.743000 # Pt
337 4 0.000000 -7.395000 7.630000 -6.537000 # Pt
338 4 0.000000 -9.551000 6.242000 -5.972000 # Pt
339 4 0.000000 -9.132000 7.630000 -3.783000 # Pt
340 4 0.000000 -10.986000 6.242000 -2.545000 # Pt
341 4 0.000000 -9.874000 7.630000 -0.613000 # Pt
342 4 0.000000 -11.222000 6.242000 1.163000 # Pt
343 4 0.000000 -9.540000 7.630000 2.626000 # Pt
344 4 0.000000 -10.234000 6.242000 4.745000 # Pt
345 4 0.000000 -8.166000 7.630000 5.578000 # Pt
346 4 0.000000 -8.130000 6.242000 7.807000 # Pt
347 4 0.000000 -5.904000 7.630000 7.920000 # Pt
348 4 0.000000 -5.141000 6.242000 10.014000 # Pt
349 4 0.000000 -3.000000 7.630000 9.393000 # Pt
350 4 0.000000 -1.595000 6.242000 11.124000 # Pt
351 4 0.000000 0.225000 7.630000 9.838000 # Pt
352 4 0.000000 2.118000 6.242000 11.015000 # Pt
353 4 0.000000 3.418000 7.630000 9.205000 # Pt
354 4 0.000000 5.592000 6.242000 9.699000 # Pt
355 4 0.000000 6.230000 7.630000 7.563000 # Pt
356 4 0.000000 8.446000 6.242000 7.320000 # Pt
357 4 0.000000 8.351000 7.630000 5.093000 # Pt
358 4 0.000000 10.366000 6.242000 4.139000 # Pt
359 4 0.000000 9.549000 7.630000 2.065000 # Pt
360 4 0.000000 11.142000 6.242000 0.506000 # Pt
361 4 0.000000 9.693000 7.630000 -1.188000 # Pt
362 4 0.000000 10.806000 3.468000 -2.759000 # Pt
363 4 0.000000 8.928000 4.855000 -3.960000 # Pt
364 4 0.000000 9.304000 3.468000 -6.157000 # Pt
365 4 0.000000 7.137000 4.855000 -6.679000 # Pt
366 4 0.000000 6.775000 3.468000 -8.879000 # Pt
367 4 0.000000 4.556000 4.855000 -8.665000 # Pt
368 4 0.000000 3.496000 3.468000 -10.625000 # Pt
369 4 0.000000 1.469000 4.855000 -9.698000 # Pt
370 4 0.000000 -0.174000 3.468000 -11.205000 # Pt
371 4 0.000000 -1.786000 4.855000 -9.666000 # Pt
372 4 0.000000 -3.831000 3.468000 -10.554000 # Pt
373 4 0.000000 -4.853000 4.855000 -8.572000 # Pt
374 4 0.000000 -7.076000 3.468000 -8.743000 # Pt
375 4 0.000000 -7.395000 4.855000 -6.537000 # Pt
376 4 0.000000 -9.551000 3.468000 -5.972000 # Pt
377 4 0.000000 -9.132000 4.855000 -3.783000 # Pt
378 4 0.000000 -10.986000 3.468000 -2.545000 # Pt
379 4 0.000000 -9.874000 4.855000 -0.613000 # Pt
380 4 0.000000 -11.222000 3.468000 1.163000 # Pt
381 4 0.000000 -9.540000 4.855000 2.626000 # Pt
382 4 0.000000 -10.234000 3.468000 4.745000 # Pt
383 4 0.000000 -8.166000 4.855000 5.578000 # Pt
384 4 0.000000 -8.130000 3.468000 7.807000 # Pt
385 4 0.000000 -5.904000 4.855000 7.920000 # Pt
386 4 0.000000 -5.141000 3.468000 10.014000 # Pt
387 4 0.000000 -3.000000 4.855000 9.393000 # Pt
388 4 0.000000 -1.595000 3.468000 11.124000 # Pt
389 4 0.000000 0.225000 4.855000 9.838000 # Pt
390 4 0.000000 2.118000 3.468000 11.015000 # Pt
391 4 0.000000 3.418000 4.855000 9.205000 # Pt
392 4 0.000000 5.592000 3.468000 9.699000 # Pt
393 4 0.000000 6.230000 4.855000 7.563000 # Pt
394 4 0.000000 8.446000 3.468000 7.320000 # Pt
395 4 0.000000 8.351000 4.855000 5.093000 # Pt
396 4 0.000000 10.366000 3.468000 4.139000 # Pt
397 4 0.000000 9.549000 4.855000 2.065000 # Pt
398 4 0.000000 11.142000 3.468000 0.506000 # Pt
399 4 0.000000 9.693000 4.855000 -1.188000 # Pt
400 4 0.000000 10.806000 0.693000 -2.759000 # Pt
401 4 0.000000 8.928000 2.081000 -3.960000 # Pt
402 4 0.000000 9.304000 0.693000 -6.157000 # Pt
403 4 0.000000 7.137000 2.081000 -6.679000 # Pt
404 4 0.000000 6.775000 0.693000 -8.879000 # Pt
405 4 0.000000 4.556000 2.081000 -8.665000 # Pt
406 4 0.000000 3.496000 0.693000 -10.625000 # Pt
407 4 0.000000 1.469000 2.081000 -9.698000 # Pt
408 4 0.000000 -0.174000 0.693000 -11.205000 # Pt
409 4 0.000000 -1.786000 2.081000 -9.666000 # Pt
410 4 0.000000 -3.831000 0.693000 -10.554000 # Pt
411 4 0.000000 -4.853000 2.081000 -8.572000 # Pt
412 4 0.000000 -7.076000 0.693000 -8.743000 # Pt
413 4 0.000000 -7.395000 2.081000 -6.537000 # Pt
414 4 0.000000 -9.551000 0.693000 -5.972000 # Pt
415 4 0.000000 -9.132000 2.081000 -3.783000 # Pt
416 4 0.000000 -10.986000 0.693000 -2.545000 # Pt
417 4 0.000000 -9.874000 2.081000 -0.613000 # Pt
418 4 0.000000 -11.222000 0.693000 1.163000 # Pt
419 4 0.000000 -9.540000 2.081000 2.626000 # Pt
420 4 0.000000 -10.234000 0.693000 4.745000 # Pt
421 4 0.000000 -8.166000 2.081000 5.578000 # Pt
422 4 0.000000 -8.130000 0.693000 7.807000 # Pt
423 4 0.000000 -5.904000 2.081000 7.920000 # Pt
424 4 0.000000 -5.141000 0.693000 10.014000 # Pt
425 4 0.000000 -3.000000 2.081000 9.393000 # Pt
426 4 0.000000 -1.595000 0.693000 11.124000 # Pt
427 4 0.000000 0.225000 2.081000 9.838000 # Pt
428 4 0.000000 2.118000 0.693000 11.015000 # Pt
429 4 0.000000 3.418000 2.081000 9.205000 # Pt
430 4 0.000000 5.592000 0.693000 9.699000 # Pt
431 4 0.000000 6.230000 2.081000 7.563000 # Pt
432 4 0.000000 8.446000 0.693000 7.320000 # Pt
433 4 0.000000 8.351000 2.081000 5.093000 # Pt
434 4 0.000000 10.366000 0.693000 4.139000 # Pt
435 4 0.000000 9.549000 2.081000 2.065000 # Pt
436 4 0.000000 11.142000 0.693000 0.506000 # Pt
437 4 0.000000 9.693000 2.081000 -1.188000 # Pt
438 4 0.000000 10.806000 -2.081000 -2.759000 # Pt
439 4 0.000000 8.928000 -0.694000 -3.960000 # Pt
440 4 0.000000 9.304000 -2.081000 -6.157000 # Pt
441 4 0.000000 7.137000 -0.694000 -6.679000 # Pt
442 4 0.000000 6.775000 -2.081000 -8.879000 # Pt
443 4 0.000000 4.556000 -0.694000 -8.665000 # Pt
444 4 0.000000 3.496000 -2.081000 -10.625000 # Pt
445 4 0.000000 1.469000 -0.694000 -9.698000 # Pt
446 4 0.000000 -0.174000 -2.081000 -11.205000 # Pt
447 4 0.000000 -1.786000 -0.694000 -9.666000 # Pt
448 4 0.000000 -3.831000 -2.081000 -10.554000 # Pt
449 4 0.000000 -4.853000 -0.694000 -8.572000 # Pt
450 4 0.000000 -7.076000 -2.081000 -8.743000 # Pt
451 4 0.000000 -7.395000 -0.694000 -6.537000 # Pt
452 4 0.000000 -9.551000 -2.081000 -5.972000 # Pt
453 4 0.000000 -9.132000 -0.694000 -3.783000 # Pt
454 4 0.000000 -10.986000 -2.081000 -2.545000 # Pt
455 4 0.000000 -9.874000 -0.694000 -0.613000 # Pt
456 4 0.000000 -11.222000 -2.081000 1.163000 # Pt
457 4 0.000000 -9.540000 -0.694000 2.626000 # Pt
458 4 0.000000 -10.234000 -2.081000 4.745000 # Pt
459 4 0.000000 -8.166000 -0.694000 5.578000 # Pt
460 4 0.000000 -8.130000 -2.081000 7.807000 # Pt
461 4 0.000000 -5.904000 -0.694000 7.920000 # Pt
462 4 0.000000 -5.141000 -2.081000 10.014000 # Pt
463 4 0.000000 -3.000000 -0.694000 9.393000 # Pt
464 4 0.000000 -1.595000 -2.081000 11.124000 # Pt
465 4 0.000000 0.225000 -0.694000 9.838000 # Pt
466 4 0.000000 2.118000 -2.081000 11.015000 # Pt
467 4 0.000000 3.418000 -0.694000 9.205000 # Pt
468 4 0.000000 5.592000 -2.081000 9.699000 # Pt
469 4 0.000000 6.230000 -0.694000 7.563000 # Pt
470 4 0.000000 8.446000 -2.081000 7.320000 # Pt
471 4 0.000000 8.351000 -0.694000 5.093000 # Pt
472 4 0.000000 10.366000 -2.081000 4.139000 # Pt
473 4 0.000000 9.549000 -0.694000 2.065000 # Pt
474 4 0.000000 11.142000 -2.081000 0.506000 # Pt
475 4 0.000000 9.693000 -0.694000 -1.188000 # Pt
476 4 0.000000 10.806000 -4.856000 -2.759000 # Pt
477 4 0.000000 8.928000 -3.469000 -3.960000 # Pt
478 4 0.000000 9.304000 -4.856000 -6.157000 # Pt
479 4 0.000000 7.137000 -3.469000 -6.679000 # Pt
480 4 0.000000 6.775000 -4.856000 -8.879000 # Pt
481 4 0.000000 4.556000 -3.469000 -8.665000 # Pt
482 4 0.000000 3.496000 -4.856000 -10.625000 # Pt
483 4 0.000000 1.469000 -3.469000 -9.698000 # Pt
484 4 0.000000 -0.174000 -4.856000 -11.205000 # Pt
485 4 0.000000 -1.786000 -3.469000 -9.666000 # Pt
486 4 0.000000 -3.831000 -4.856000 -10.554000 # Pt
487 4 0.000000 -4.853000 -3.469000 -8.572000 # Pt
488 4 0.000000 -7.076000 -4.856000 -8.743000 # Pt
489 4 0.000000 -7.395000 -3.469000 -6.537000 # Pt
490 4 0.000000 -9.551000 -4.856000 -5.972000 # Pt
491 4 0.000000 -9.132000 -3.469000 -3.783000 # Pt
492 4 0.000000 -10.986000 -4.856000 -2.545000 # Pt
493 4 0.000000 -9.874000 -3.469000 -0.613000 # Pt
494 4 0.000000 -11.222000 -4.856000 1.163000 # Pt
495 4 0.000000 -9.540000 -3.469000 2.626000 # Pt
496 4 0.000000 -10.234000 -4.856000 4.745000 # Pt
497 4 0.000000 -8.166000 -3.469000 5.578000 # Pt
498 4 0.000000 -8.130000 -4.856000 7.807000 # Pt
499 4 0.000000 -5.904000 -3.469000 7.920000 # Pt
500 4 0.000000 -5.141000 -4.856000 10.014000 # Pt
501 4 0.000000 -3.000000 -3.469000 9.393000 # Pt
502 4 0.000000 -1.595000 -4.856000 11.124000 # Pt
503 4 0.000000 0.225000 -3.469000 9.838000 # Pt
504 4 0.000000 2.118000 -4.856000 11.015000 # Pt
505 4 0.000000 3.418000 -3.469000 9.205000 # Pt
506 4 0.000000 5.592000 -4.856000 9.699000 # Pt
507 4 0.000000 6.230000 -3.469000 7.563000 # Pt
508 4 0.000000 8.446000 -4.856000 7.320000 # Pt
509 4 0.000000 8.351000 -3.469000 5.093000 # Pt
510 4 0.000000 10.366000 -4.856000 4.139000 # Pt
511 4 0.000000 9.549000 -3.469000 2.065000 # Pt
512 4 0.000000 11.142000 -4.856000 0.506000 # Pt
513 4 0.000000 9.693000 -3.469000 -1.188000 # Pt
514 4 0.000000 10.806000 -7.631000 -2.759000 # Pt
515 4 0.000000 8.928000 -6.243000 -3.960000 # Pt
516 4 0.000000 9.304000 -7.631000 -6.157000 # Pt
517 4 0.000000 7.137000 -6.243000 -6.679000 # Pt
518 4 0.000000 6.775000 -7.631000 -8.879000 # Pt
519 4 0.000000 4.556000 -6.243000 -8.665000 # Pt
520 4 0.000000 3.496000 -7.631000 -10.625000 # Pt
521 4 0.000000 1.469000 -6.243000 -9.698000 # Pt
522 4 0.000000 -0.174000 -7.631000 -11.205000 # Pt
523 4 0.000000 -1.786000 -6.243000 -9.666000 # Pt
524 4 0.000000 -3.831000 -7.631000 -10.554000 # Pt
525 4 0.000000 -4.853000 -6.243000 -8.572000 # Pt
526 4 0.000000 -7.076000 -7.631000 -8.743000 # Pt
527 4 0.000000 -7.395000 -6.243000 -6.537000 # Pt
528 4 0.000000 -9.551000 -7.631000 -5.972000 # Pt
529 4 0.000000 -9.132000 -6.243000 -3.783000 # Pt
530 4 0.000000 -10.986000 -7.631000 -2.545000 # Pt
531 4 0.000000 -9.874000 -6.243000 -0.613000 # Pt
532 4 0.000000 -11.222000 -7.631000 1.163000 # Pt
533 4 0.000000 -9.540000 -6.243000 2.626000 # Pt
534 4 0.000000 -10.234000 -7.631000 4.745000 # Pt
535 4 0.000000 -8.166000 -6.243000 5.578000 # Pt
536 4 0.000000 -8.130000 -7.631000 7.807000 # Pt
537 4 0.000000 -5.904000 -6.243000 7.920000 # Pt
538 4 0.000000 -5.141000 -7.631000 10.014000 # Pt
539 4 0.000000 -3.000000 -6.243000 9.393000 # Pt
540 4 0.000000 -1.595000 -7.631000 11.124000 # Pt
541 4 0.000000 0.225000 -6.243000 9.838000 # Pt
542 4 0.000000 2.118000 -7.631000 11.015000 # Pt
543 4 0.000000 3.418000 -6.243000 9.205000 # Pt
544 4 0.000000 5.592000 -7.631000 9.699000 # Pt
545 4 0.000000 6.230000 -6.243000 7.563000 # Pt
546 4 0.000000 8.446000 -7.631000 7.320000 # Pt
547 4 0.000000 8.351000 -6.243000 5.093000 # Pt
548 4 0.000000 10.366000 -7.631000 4.139000 # Pt
549 4 0.000000 9.549000 -6.243000 2.065000 # Pt
550 4 0.000000 11.142000 -7.631000 0.506000 # Pt
551 4 0.000000 9.693000 -6.243000 -1.188000 # Pt
552 4 0.000000 10.806000 -10.405000 -2.759000 # Pt
553 4 0.000000 8.928000 -9.018000 -3.960000 # Pt
554 4 0.000000 9.304000 -10.405000 -6.157000 # Pt
555 4 0.000000 7.137000 -9.018000 -6.679000 # Pt
556 4 0.000000 6.775000 -10.405000 -8.879000 # Pt
557 4 0.000000 4.556000 -9.018000 -8.665000 # Pt
558 4 0.000000 3.496000 -10.405000 -10.625000 # Pt
559 4 0.000000 1.469000 -9.018000 -9.698000 # Pt
560 4 0.000000 -0.174000 -10.405000 -11.205000 # Pt
561 4 0.000000 -1.786000 -9.018000 -9.666000 # Pt
562 4 0.000000 -3.831000 -10.405000 -10.554000 # Pt
563 4 0.000000 -4.853000 -9.018000 -8.572000 # Pt
564 4 0.000000 -7.076000 -10.405000 -8.743000 # Pt
565 4 0.000000 -7.395000 -9.018000 -6.537000 # Pt
566 4 0.000000 -9.551000 -10.405000 -5.972000 # Pt
567 4 0.000000 -9.132000 -9.018000 -3.783000 # Pt
568 4 0.000000 -10.986000 -10.405000 -2.545000 # Pt
569 4 0.000000 -9.874000 -9.018000 -0.613000 # Pt
570 4 0.000000 -11.222000 -10.405000 1.163000 # Pt
571 4 0.000000 -9.540000 -9.018000 2.626000 # Pt
572 4 0.000000 -10.234000 -10.405000 4.745000 # Pt
573 4 0.000000 -8.166000 -9.018000 5.578000 # Pt
574 4 0.000000 -8.130000 -10.405000 7.807000 # Pt
575 4 0.000000 -5.904000 -9.018000 7.920000 # Pt
576 4 0.000000 -5.141000 -10.405000 10.014000 # Pt
577 4 0.000000 -3.000000 -9.018000 9.393000 # Pt
578 4 0.000000 -1.595000 -10.405000 11.124000 # Pt
579 4 0.000000 0.225000 -9.018000 9.838000 # Pt
580 4 0.000000 2.118000 -10.405000 11.015000 # Pt
581 4 0.000000 3.418000 -9.018000 9.205000 # Pt
582 4 0.000000 5.592000 -10.405000 9.699000 # Pt
583 4 0.000000 6.230000 -9.018000 7.563000 # Pt
584 4 0.000000 8.446000 -10.405000 7.320000 # Pt
585 4 0.000000 8.351000 -9.018000 5.093000 # Pt
586 4 0.000000 10.366000 -10.405000 4.139000 # Pt
587 4 0.000000 9.549000 -9.018000 2.065000 # Pt
588 4 0.000000 11.142000 -10.405000 0.506000 # Pt
589 4 0.000000 9.693000 -9.018000 -1.188000 # Pt
590 4 0.000000 10.806000 -13.180000 -2.759000 # Pt
591 4 0.000000 8.928000 -11.793000 -3.960000 # Pt
592 4 0.000000 9.304000 -13.180000 -6.157000 # Pt
593 4 0.000000 7.137000 -11.793000 -6.679000 # Pt
594 4 0.000000 6.775000 -13.180000 -8.879000 # Pt
595 4 0.000000 4.556000 -11.793000 -8.665000 # Pt
596 4 0.000000 3.496000 -13.180000 -10.625000 # Pt
597 4 0.000000 1.469000 -11.793000 -9.698000 # Pt
598 4 0.000000 -0.174000 -13.180000 -11.205000 # Pt
599 4 0.000000 -1.786000 -11.793000 -9.666000 # Pt
600 4 0.000000 -3.831000 -13.180000 -10.554000 # Pt
601 4 0.000000 -4.853000 -11.793000 -8.572000 # Pt
602 4 0.000000 -7.076000 -13.180000 -8.743000 # Pt